<?xml version="1.0"?>
<VTKFile type="UnstructuredGrid"  byte_order="LittleEndian">
<UnstructuredGrid>
<Piece NumberOfPoints="121" NumberOfCells=" 240">
<Points>
<DataArray type="Float32" NumberOfComponents="3" format="ascii">
-1.000000 -1.000000 0.000000 -0.800000 -1.000000 0.000000 -0.600000 -1.000000 0.000000 -0.400000 -1.000000 0.000000 -0.200000 -1.000000 0.000000 0.000000 -1.000000 0.000000 0.200000 -1.000000 0.000000 0.400000 -1.000000 0.000000 0.600000 -1.000000 0.000000 0.800000 -1.000000 0.000000 1.000000 -1.000000 0.000000 -1.000000 -0.800000 0.000000 -0.800000 -0.800000 0.000000 -0.600000 -0.800000 0.000000 -0.400000 -0.800000 0.000000 -0.200000 -0.800000 0.000000 0.000000 -0.800000 0.000000 0.200000 -0.800000 0.000000 0.400000 -0.800000 0.000000 0.600000 -0.800000 0.000000 0.800000 -0.800000 0.000000 1.000000 -0.800000 0.000000 -1.000000 -0.600000 0.000000 -0.800000 -0.600000 0.000000 -0.600000 -0.600000 0.000000 -0.400000 -0.600000 0.000000 -0.200000 -0.600000 0.000000 0.000000 -0.600000 0.000000 0.200000 -0.600000 0.000000 0.400000 -0.600000 0.000000 0.600000 -0.600000 0.000000 0.800000 -0.600000 0.000000 1.000000 -0.600000 0.000000 -1.000000 -0.400000 0.000000 -0.800000 -0.400000 0.000000 -0.600000 -0.400000 0.000000 -0.400000 -0.400000 0.000000 -0.200000 -0.400000 0.000000 0.000000 -0.400000 0.000000 0.200000 -0.400000 0.000000 0.400000 -0.400000 0.000000 0.600000 -0.400000 0.000000 0.800000 -0.400000 0.000000 1.000000 -0.400000 0.000000 -1.000000 -0.200000 0.000000 -0.800000 -0.200000 0.000000 -0.600000 -0.200000 0.000000 -0.400000 -0.200000 0.000000 -0.200000 -0.200000 0.000000 0.000000 -0.200000 0.000000 0.200000 -0.200000 0.000000 0.400000 -0.200000 0.000000 0.600000 -0.200000 0.000000 0.800000 -0.200000 0.000000 1.000000 -0.200000 0.000000 -1.000000 0.000000 0.000000 -0.800000 0.000000 0.000000 -0.600000 0.000000 0.000000 -0.400000 0.000000 0.000000 -0.200000 0.000000 0.000000 0.000000 0.000000 0.000000 0.200000 0.000000 0.000000 0.400000 0.000000 0.000000 0.600000 0.000000 0.000000 0.800000 0.000000 0.000000 1.000000 0.000000 0.000000 -1.000000 0.200000 0.000000 -0.800000 0.200000 0.000000 -0.600000 0.200000 0.000000 -0.400000 0.200000 0.000000 -0.200000 0.200000 0.000000 0.000000 0.200000 0.000000 0.200000 0.200000 0.000000 0.400000 0.200000 0.000000 0.600000 0.200000 0.000000 0.800000 0.200000 0.000000 1.000000 0.200000 0.000000 -1.000000 0.400000 0.000000 -0.800000 0.400000 0.000000 -0.600000 0.400000 0.000000 -0.400000 0.400000 0.000000 -0.200000 0.400000 0.000000 0.000000 0.400000 0.000000 0.200000 0.400000 0.000000 0.400000 0.400000 0.000000 0.600000 0.400000 0.000000 0.800000 0.400000 0.000000 1.000000 0.400000 0.000000 -1.000000 0.600000 0.000000 -0.800000 0.600000 0.000000 -0.600000 0.600000 0.000000 -0.400000 0.600000 0.000000 -0.200000 0.600000 0.000000 0.000000 0.600000 0.000000 0.200000 0.600000 0.000000 0.400000 0.600000 0.000000 0.600000 0.600000 0.000000 0.800000 0.600000 0.000000 1.000000 0.600000 0.000000 -1.000000 0.800000 0.000000 -0.800000 0.800000 0.000000 -0.600000 0.800000 0.000000 -0.400000 0.800000 0.000000 -0.200000 0.800000 0.000000 0.000000 0.800000 0.000000 0.200000 0.800000 0.000000 0.400000 0.800000 0.000000 0.600000 0.800000 0.000000 0.800000 0.800000 0.000000 1.000000 0.800000 0.000000 -1.000000 1.000000 0.000000 -0.800000 1.000000 0.000000 -0.600000 1.000000 0.000000 -0.400000 1.000000 0.000000 -0.200000 1.000000 0.000000 0.000000 1.000000 0.000000 0.200000 1.000000 0.000000 0.400000 1.000000 0.000000 0.600000 1.000000 0.000000 0.800000 1.000000 0.000000 1.000000 1.000000 0.000000 
</DataArray>
</Points>
<Cells>
<DataArray type="Int32" Name="connectivity"  format="ascii">
0 1 12 0 12 11 1 2 13 1 13 12 2 3 14 2 14 13 3 4 15 3 15 14 4 5 16 4 16 15 5 6 17 5 17 16 6 7 18 6 18 17 7 8 19 7 19 18 8 9 20 8 20 19 9 10 21 9 21 20 11 12 23 11 23 22 12 13 24 12 24 23 13 14 25 13 25 24 14 15 26 14 26 25 15 16 27 15 27 26 16 17 28 16 28 27 17 18 29 17 29 28 18 19 30 18 30 29 19 20 31 19 31 30 20 21 32 20 32 31 22 23 34 22 34 33 23 24 35 23 35 34 24 25 36 24 36 35 25 26 37 25 37 36 26 27 38 26 38 37 27 28 39 27 39 38 28 29 40 28 40 39 29 30 41 29 41 40 30 31 42 30 42 41 31 32 43 31 43 42 33 34 45 33 45 44 34 35 46 34 46 45 35 36 47 35 47 46 36 37 48 36 48 47 37 38 49 37 49 48 38 39 50 38 50 49 39 40 51 39 51 50 40 41 52 40 52 51 41 42 53 41 53 52 42 43 54 42 54 53 44 45 56 44 56 55 45 46 57 45 57 56 46 47 58 46 58 57 47 48 59 47 59 58 48 49 60 48 60 59 49 50 61 49 61 60 50 51 62 50 62 61 51 52 63 51 63 62 52 53 64 52 64 63 53 54 65 53 65 64 55 56 67 55 67 66 56 57 68 56 68 67 57 58 69 57 69 68 58 59 70 58 70 69 59 60 71 59 71 70 60 61 72 60 72 71 61 62 73 61 73 72 62 63 74 62 74 73 63 64 75 63 75 74 64 65 76 64 76 75 66 67 78 66 78 77 67 68 79 67 79 78 68 69 80 68 80 79 69 70 81 69 81 80 70 71 82 70 82 81 71 72 83 71 83 82 72 73 84 72 84 83 73 74 85 73 85 84 74 75 86 74 86 85 75 76 87 75 87 86 77 78 89 77 89 88 78 79 90 78 90 89 79 80 91 79 91 90 80 81 92 80 92 91 81 82 93 81 93 92 82 83 94 82 94 93 83 84 95 83 95 94 84 85 96 84 96 95 85 86 97 85 97 96 86 87 98 86 98 97 88 89 100 88 100 99 89 90 101 89 101 100 90 91 102 90 102 101 91 92 103 91 103 102 92 93 104 92 104 103 93 94 105 93 105 104 94 95 106 94 106 105 95 96 107 95 107 106 96 97 108 96 108 107 97 98 109 97 109 108 99 100 111 99 111 110 100 101 112 100 112 111 101 102 113 101 113 112 102 103 114 102 114 113 103 104 115 103 115 114 104 105 116 104 116 115 105 106 117 105 117 116 106 107 118 106 118 117 107 108 119 107 119 118 108 109 120 108 120 119 0 1 1 2 2 3 3 4 4 5 5 6 6 7 7 8 8 9 9 10 10 21 21 32 32 43 43 54 54 65 65 76 76 87 87 98 98 109 109 120 110 111 111 112 112 113 113 114 114 115 115 116 116 117 117 118 118 119 119 120 0 11 11 22 22 33 33 44 44 55 55 66 66 77 77 88 88 99 99 110 
</DataArray>
<DataArray type="Int32" Name="offsets" format="ascii" >
3 6 9 12 15 18 21 24 27 30 33 36 39 42 45 48 51 54 57 60 63 66 69 72 75 78 81 84 87 90 93 96 99 102 105 108 111 114 117 120 123 126 129 132 135 138 141 144 147 150 153 156 159 162 165 168 171 174 177 180 183 186 189 192 195 198 201 204 207 210 213 216 219 222 225 228 231 234 237 240 243 246 249 252 255 258 261 264 267 270 273 276 279 282 285 288 291 294 297 300 303 306 309 312 315 318 321 324 327 330 333 336 339 342 345 348 351 354 357 360 363 366 369 372 375 378 381 384 387 390 393 396 399 402 405 408 411 414 417 420 423 426 429 432 435 438 441 444 447 450 453 456 459 462 465 468 471 474 477 480 483 486 489 492 495 498 501 504 507 510 513 516 519 522 525 528 531 534 537 540 543 546 549 552 555 558 561 564 567 570 573 576 579 582 585 588 591 594 597 600 602 604 606 608 610 612 614 616 618 620 622 624 626 628 630 632 634 636 638 640 642 644 646 648 650 652 654 656 658 660 662 664 666 668 670 672 674 676 678 680 
</DataArray>
<DataArray type="UInt8" Name="types" format="ascii" >
5 5 5 5 5 5 5 5 5 5 5 5 5 5 5 5 5 5 5 5 5 5 5 5 5 5 5 5 5 5 5 5 5 5 5 5 5 5 5 5 5 5 5 5 5 5 5 5 5 5 5 5 5 5 5 5 5 5 5 5 5 5 5 5 5 5 5 5 5 5 5 5 5 5 5 5 5 5 5 5 5 5 5 5 5 5 5 5 5 5 5 5 5 5 5 5 5 5 5 5 5 5 5 5 5 5 5 5 5 5 5 5 5 5 5 5 5 5 5 5 5 5 5 5 5 5 5 5 5 5 5 5 5 5 5 5 5 5 5 5 5 5 5 5 5 5 5 5 5 5 5 5 5 5 5 5 5 5 5 5 5 5 5 5 5 5 5 5 5 5 5 5 5 5 5 5 5 5 5 5 5 5 5 5 5 5 5 5 5 5 5 5 5 5 5 5 5 5 5 5 3 3 3 3 3 3 3 3 3 3 3 3 3 3 3 3 3 3 3 3 3 3 3 3 3 3 3 3 3 3 3 3 3 3 3 3 3 3 3 3 
</DataArray>
</Cells>
<PointData>
<DataArray type="Float32" Name="u" NumberOfComponents="1" format="ascii">
0.00000000e+00 3.60000014e-01 6.39999986e-01 8.39999974e-01 9.59999979e-01 1.00000000e+00 9.59999979e-01 8.39999974e-01 6.39999986e-01 3.60000014e-01 0.00000000e+00 3.60000014e-01 7.20000029e-01 1.00000000e+00 1.20000005e+00 1.32000005e+00 1.36000001e+00 1.32000005e+00 1.20000005e+00 1.00000000e+00 7.20000029e-01 3.60000014e-01 6.39999986e-01 1.00000000e+00 1.27999997e+00 1.48000002e+00 1.60000002e+00 1.63999999e+00 1.60000002e+00 1.48000002e+00 1.27999997e+00 1.00000000e+00 6.39999986e-01 8.39999974e-01 1.20000005e+00 1.48000002e+00 1.67999995e+00 1.79999995e+00 1.84000003e+00 1.79999995e+00 1.67999995e+00 1.48000002e+00 1.20000005e+00 8.39999974e-01 9.59999979e-01 1.32000005e+00 1.60000002e+00 1.79999995e+00 1.91999996e+00 1.96000004e+00 1.91999996e+00 1.79999995e+00 1.60000002e+00 1.32000005e+00 9.59999979e-01 1.00000000e+00 1.36000001e+00 1.63999999e+00 1.84000003e+00 1.96000004e+00 2.00000000e+00 1.96000004e+00 1.84000003e+00 1.63999999e+00 1.36000001e+00 1.00000000e+00 9.59999979e-01 1.32000005e+00 1.60000002e+00 1.79999995e+00 1.91999996e+00 1.96000004e+00 1.91999996e+00 1.79999995e+00 1.60000002e+00 1.32000005e+00 9.59999979e-01 8.39999974e-01 1.20000005e+00 1.48000002e+00 1.67999995e+00 1.79999995e+00 1.84000003e+00 1.79999995e+00 1.67999995e+00 1.48000002e+00 1.20000005e+00 8.39999974e-01 6.39999986e-01 1.00000000e+00 1.27999997e+00 1.48000002e+00 1.60000002e+00 1.63999999e+00 1.60000002e+00 1.48000002e+00 1.27999997e+00 1.00000000e+00 6.39999986e-01 3.60000014e-01 7.20000029e-01 1.00000000e+00 1.20000005e+00 1.32000005e+00 1.36000001e+00 1.32000005e+00 1.20000005e+00 1.00000000e+00 7.20000029e-01 3.60000014e-01 0.00000000e+00 3.60000014e-01 6.39999986e-01 8.39999974e-01 9.59999979e-01 1.00000000e+00 9.59999979e-01 8.39999974e-01 6.39999986e-01 3.60000014e-01 0.00000000e+00 
</DataArray>
</PointData>
</Piece>
</UnstructuredGrid>
</VTKFile>
